 argument  1 = water_molicule_sample_input.nw
                                         
                                         


              Northwest Computational Chemistry Package (NWChem) 6.8
              ------------------------------------------------------


                    Environmental Molecular Sciences Laboratory
                       Pacific Northwest National Laboratory
                                Richland, WA 99352

                              Copyright (c) 1994-2017
                       Pacific Northwest National Laboratory
                            Battelle Memorial Institute

             NWChem is an open-source computational chemistry package
                        distributed under the terms of the
                      Educational Community License (ECL) 2.0
             A copy of the license is included with this distribution
                              in the LICENSE.TXT file

                                  ACKNOWLEDGMENT
                                  --------------

            This software and its documentation were developed at the
            EMSL at Pacific Northwest National Laboratory, a multiprogram
            national laboratory, operated for the U.S. Department of Energy
            by Battelle under Contract Number DE-AC05-76RL01830. Support
            for this work was provided by the Department of Energy Office
            of Biological and Environmental Research, Office of Basic
            Energy Sciences, and the Office of Advanced Scientific Computing.


           Job information
           ---------------

    hostname        = Santus-MBP.mshome.net
    program         = nwchem
    date            = Mon Dec  3 18:44:04 2018

    compiled        = Mon_Aug_27_18:39:08_2018
    source          = /Users/santuchal/nwchem-6.8
    nwchem branch   = 6.8
    nwchem revision = v6.8-47-gdf6c956
    ga revision     = ga-5.6.3
    use scalapack   = F
    input           = water_molicule_sample_input.nw
    prefix          = h2o_freq.
    data base       = ./h2o_freq.db
    status          = startup
    nproc           =        1
    time left       =     -1s



           Memory information
           ------------------

    heap     =   13107196 doubles =    100.0 Mbytes
    stack    =   13107201 doubles =    100.0 Mbytes
    global   =   26214400 doubles =    200.0 Mbytes (distinct from heap & stack)
    total    =   52428797 doubles =    400.0 Mbytes
    verify   = yes
    hardfail = no 


           Directory information
           ---------------------

  0 permanent = .
  0 scratch   = .




                                NWChem Input Module
                                -------------------



 Scaling coordinates for geometry "geometry" by  1.889725989
 (inverse scale =  0.529177249)

 C2V symmetry detected

          ------
          auto-z
          ------


                             Geometry "geometry" -> ""
                             -------------------------

 Output coordinates in angstroms (scale by  1.889725989 to convert to a.u.)

  No.       Tag          Charge          X              Y              Z
 ---- ---------------- ---------- -------------- -------------- --------------
    1 O                    8.0000     0.00000000     0.00000000    -0.14142136
    2 H                    1.0000     0.70710678     0.00000000     0.56568542
    3 H                    1.0000    -0.70710678     0.00000000     0.56568542

      Atomic Mass 
      ----------- 

      O                 15.994910
      H                  1.007825


 Effective nuclear repulsion energy (a.u.)       8.8410208052

            Nuclear Dipole moment (a.u.) 
            ----------------------------
        X                 Y               Z
 ---------------- ---------------- ----------------
     0.0000000000     0.0000000000     0.0000000000

      Symmetry information
      --------------------

 Group name             C2v       
 Group number             16
 Group order               4
 No. of unique centers     2

      Symmetry unique atoms

     1    2



                                Z-matrix (autoz)
                                -------- 

 Units are Angstrom for bonds and degrees for angles

      Type          Name      I     J     K     L     M      Value
      ----------- --------  ----- ----- ----- ----- ----- ----------
    1 Stretch                  1     2                       1.00000
    2 Stretch                  1     3                       1.00000
    3 Bend                     2     1     3                90.00000


            XYZ format geometry
            -------------------
     3
 geometry
 O                     0.00000000     0.00000000    -0.14142136
 H                     0.70710678     0.00000000     0.56568542
 H                    -0.70710678     0.00000000     0.56568542

 ==============================================================================
                                internuclear distances
 ------------------------------------------------------------------------------
       center one      |      center two      | atomic units |  angstroms
 ------------------------------------------------------------------------------
    2 H                |   1 O                |     1.88973  |     1.00000
    3 H                |   1 O                |     1.88973  |     1.00000
 ------------------------------------------------------------------------------
                         number of included internuclear distances:          2
 ==============================================================================



 ==============================================================================
                                 internuclear angles
 ------------------------------------------------------------------------------
        center 1       |       center 2       |       center 3       |  degrees
 ------------------------------------------------------------------------------
    2 H                |   1 O                |   3 H                |    90.00
 ------------------------------------------------------------------------------
                            number of included internuclear angles:          1
 ==============================================================================



  library name resolved from: .nwchemrc
  library file name is: </Users/santuchal/nwchem-6.8/src/basis/libraries/>
  
                      Basis "ao basis" -> "" (cartesian)
                      -----
  H (Hydrogen)
  ------------
            Exponent  Coefficients 
       -------------- ---------------------------------------------------------
  1 S  3.42525091E+00  0.154329
  1 S  6.23913730E-01  0.535328
  1 S  1.68855400E-01  0.444635

  O (Oxygen)
  ----------
            Exponent  Coefficients 
       -------------- ---------------------------------------------------------
  1 S  1.30709320E+02  0.154329
  1 S  2.38088610E+01  0.535328
  1 S  6.44360830E+00  0.444635

  2 S  5.03315130E+00 -0.099967
  2 S  1.16959610E+00  0.399513
  2 S  3.80389000E-01  0.700115

  3 P  5.03315130E+00  0.155916
  3 P  1.16959610E+00  0.607684
  3 P  3.80389000E-01  0.391957



 Summary of "ao basis" -> "" (cartesian)
 ------------------------------------------------------------------------------
       Tag                 Description            Shells   Functions and Types
 ---------------- ------------------------------  ------  ---------------------
 H                           sto-3g                  1        1   1s
 O                           sto-3g                  3        5   2s1p


                      H2O+ : STO-3G UHF geometry optimization
                      ---------------------------------------


                           NWChem Geometry Optimization
                           ----------------------------




                      H2O+ : STO-3G UHF geometry optimization


 maximum gradient threshold         (gmax) =   0.000450
 rms gradient threshold             (grms) =   0.000300
 maximum cartesian step threshold   (xmax) =   0.001800
 rms cartesian step threshold       (xrms) =   0.001200
 fixed trust radius                (trust) =   0.300000
 maximum step size to saddle      (sadstp) =   0.100000
 energy precision                  (eprec) =   1.0D-07
 maximum number of steps          (nptopt) =   20
 initial hessian option           (inhess) =    0
 line search option               (linopt) =    1
 hessian update option            (modupd) =    1
 saddle point option              (modsad) =    0
 initial eigen-mode to follow     (moddir) =    0
 initial variable to follow       (vardir) =    0
 follow first negative mode     (firstneg) =    T
 apply conjugacy                    (opcg) =    F
 source of zmatrix                         =   autoz   


          -------------------
          Energy Minimization
          -------------------


 Names of Z-matrix variables 
    1              2              3         

 Variables with the same non-blank name are constrained to be equal


 Using old Hessian from previous optimization

          --------
          Step   0
          --------


                         Geometry "geometry" -> "geometry"
                         ---------------------------------

 Output coordinates in angstroms (scale by  1.889725989 to convert to a.u.)

  No.       Tag          Charge          X              Y              Z
 ---- ---------------- ---------- -------------- -------------- --------------
    1 O                    8.0000     0.00000000     0.00000000    -0.14142136
    2 H                    1.0000     0.70710678     0.00000000     0.56568542
    3 H                    1.0000    -0.70710678     0.00000000     0.56568542

      Atomic Mass 
      ----------- 

      O                 15.994910
      H                  1.007825


 Effective nuclear repulsion energy (a.u.)       8.8410208052

            Nuclear Dipole moment (a.u.) 
            ----------------------------
        X                 Y               Z
 ---------------- ---------------- ----------------
     0.0000000000     0.0000000000     0.0000000000

      Symmetry information
      --------------------

 Group name             C2v       
 Group number             16
 Group order               4
 No. of unique centers     2

      Symmetry unique atoms

     1    2

                                 NWChem SCF Module
                                 -----------------


                      H2O+ : STO-3G UHF geometry optimization



  ao basis        = "ao basis"
  functions       =     7
  atoms           =     3
  alpha electrons =     5
  beta  electrons =     4
  charge          =   1.00
  wavefunction    = UHF 
  input vectors   = atomic
  output vectors  = ./h2o_freq.movecs
  use symmetry    = T
  symmetry adapt  = T


 Forming initial guess at       0.1s


 Starting SCF solution at       0.1s



       Final UHF  results 
       ------------------ 

         Total SCF energy =    -74.653754521972
      One electron energy =   -115.830489513683
      Two electron energy =     32.335714186498
 Nuclear repulsion energy =      8.841020805213

                       Sz =      0.5000
                 Sz(Sz+1) =      0.7500
                      S^2 =      0.7566

        Time for solution =      0.2s


                              NWChem Gradients Module
                              -----------------------



                         UHF ENERGY GRADIENTS

    atom               coordinates                        gradient
                 x          y          z           x          y          z
   1 O       0.000000   0.000000  -0.267248    0.000000   0.000000   0.005967
   2 H       1.336238   0.000000   1.068990   -0.064647   0.000000  -0.002984
   3 H      -1.336238   0.000000   1.068990    0.064647   0.000000  -0.002984


@ Step       Energy      Delta E   Gmax     Grms     Xrms     Xmax   Walltime
@ ---- ---------------- -------- -------- -------- -------- -------- --------
@    0     -74.65375452  0.0D+00  0.04782  0.04646  0.00000  0.00000      0.3
                                                                    



                                Z-matrix (autoz)
                                -------- 

 Units are Angstrom for bonds and degrees for angles

      Type          Name      I     J     K     L     M      Value     Gradient
      ----------- --------  ----- ----- ----- ----- ----- ---------- ----------
    1 Stretch                  1     2                       1.00000   -0.04782
    2 Stretch                  1     3                       1.00000   -0.04782
    3 Bend                     2     1     3                90.00000   -0.04360

 Restricting large step in mode    1 eval= 6.5D-02 step= 6.7D-01 new= 3.0D-01
                                 NWChem SCF Module
                                 -----------------


                      H2O+ : STO-3G UHF geometry optimization



  ao basis        = "ao basis"
  functions       =     7
  atoms           =     3
  alpha electrons =     5
  beta  electrons =     4
  charge          =   1.00
  wavefunction    = UHF 
  input vectors   = ./h2o_freq.movecs
  output vectors  = ./h2o_freq.movecs
  use symmetry    = T
  symmetry adapt  = T


 Forming initial guess at       0.3s


 Starting SCF solution at       0.3s



       Final UHF  results 
       ------------------ 

         Total SCF energy =    -74.666243323218
      One electron energy =   -115.300527919324
      Two electron energy =     32.204607770997
 Nuclear repulsion energy =      8.429676825109

                       Sz =      0.5000
                 Sz(Sz+1) =      0.7500
                      S^2 =      0.7584

        Time for solution =      0.1s


 Line search: 
     step= 1.00 grad=-2.1D-02 hess= 8.8D-03 energy=    -74.666243 mode=downhill
 new step= 1.21                   predicted energy=    -74.666619

          --------
          Step   1
          --------


                         Geometry "geometry" -> "geometry"
                         ---------------------------------

 Output coordinates in angstroms (scale by  1.889725989 to convert to a.u.)

  No.       Tag          Charge          X              Y              Z
 ---- ---------------- ---------- -------------- -------------- --------------
    1 O                    8.0000     0.00000000     0.00000000    -0.11756132
    2 H                    1.0000     0.81393904     0.00000000     0.55375540
    3 H                    1.0000    -0.81393904     0.00000000     0.55375540

      Atomic Mass 
      ----------- 

      O                 15.994910
      H                  1.007825


 Effective nuclear repulsion energy (a.u.)       8.3500116417

            Nuclear Dipole moment (a.u.) 
            ----------------------------
        X                 Y               Z
 ---------------- ---------------- ----------------
     0.0000000000     0.0000000000     0.3156225724

      Symmetry information
      --------------------

 Group name             C2v       
 Group number             16
 Group order               4
 No. of unique centers     2

      Symmetry unique atoms

     1    2

                                 NWChem SCF Module
                                 -----------------


                      H2O+ : STO-3G UHF geometry optimization



  ao basis        = "ao basis"
  functions       =     7
  atoms           =     3
  alpha electrons =     5
  beta  electrons =     4
  charge          =   1.00
  wavefunction    = UHF 
  input vectors   = ./h2o_freq.movecs
  output vectors  = ./h2o_freq.movecs
  use symmetry    = T
  symmetry adapt  = T


 Forming initial guess at       0.5s


 Starting SCF solution at       0.5s



       Final UHF  results 
       ------------------ 

         Total SCF energy =    -74.666852985132
      One electron energy =   -115.198082008675
      Two electron energy =     32.181217381850
 Nuclear repulsion energy =      8.350011641693

                       Sz =      0.5000
                 Sz(Sz+1) =      0.7500
                      S^2 =      0.7589

        Time for solution =      0.1s


                              NWChem Gradients Module
                              -----------------------



                         UHF ENERGY GRADIENTS

    atom               coordinates                        gradient
                 x          y          z           x          y          z
   1 O       0.000000   0.000000  -0.222159    0.000000   0.000000  -0.044149
   2 H       1.538122   0.000000   1.046446    0.004358   0.000000   0.022075
   3 H      -1.538122   0.000000   1.046446   -0.004358   0.000000   0.022075


  Step       Energy      Delta E   Gmax     Grms     Xrms     Xmax   Walltime
  ---- ---------------- -------- -------- -------- -------- -------- --------
@    1     -74.66685299 -1.3D-02  0.01741  0.01666  0.09743  0.20192      0.6
                                                                    



                                Z-matrix (autoz)
                                -------- 

 Units are Angstrom for bonds and degrees for angles

      Type          Name      I     J     K     L     M      Value     Gradient
      ----------- --------  ----- ----- ----- ----- ----- ---------- ----------
    1 Stretch                  1     2                       1.05507    0.01741
    2 Stretch                  1     3                       1.05507    0.01741
    3 Bend                     2     1     3               100.97007   -0.01504

                                 NWChem SCF Module
                                 -----------------


                      H2O+ : STO-3G UHF geometry optimization



  ao basis        = "ao basis"
  functions       =     7
  atoms           =     3
  alpha electrons =     5
  beta  electrons =     4
  charge          =   1.00
  wavefunction    = UHF 
  input vectors   = ./h2o_freq.movecs
  output vectors  = ./h2o_freq.movecs
  use symmetry    = T
  symmetry adapt  = T


 Forming initial guess at       0.6s


 Starting SCF solution at       0.6s



       Final UHF  results 
       ------------------ 

         Total SCF energy =    -74.669587680905
      One electron energy =   -115.433359244324
      Two electron energy =     32.283253731925
 Nuclear repulsion energy =      8.480517831494

                       Sz =      0.5000
                 Sz(Sz+1) =      0.7500
                      S^2 =      0.7578

        Time for solution =      0.1s


 Line search: 
     step= 1.00 grad=-4.5D-03 hess= 1.7D-03 energy=    -74.669588 mode=downhill
 new step= 1.28                   predicted energy=    -74.669727

          --------
          Step   2
          --------


                         Geometry "geometry" -> "geometry"
                         ---------------------------------

 Output coordinates in angstroms (scale by  1.889725989 to convert to a.u.)

  No.       Tag          Charge          X              Y              Z
 ---- ---------------- ---------- -------------- -------------- --------------
    1 O                    8.0000     0.00000000     0.00000000    -0.06712139
    2 H                    1.0000     0.84270210     0.00000000     0.52853544
    3 H                    1.0000    -0.84270210     0.00000000     0.52853544

      Atomic Mass 
      ----------- 

      O                 15.994910
      H                  1.007825


 Effective nuclear repulsion energy (a.u.)       8.5185449320

            Nuclear Dipole moment (a.u.) 
            ----------------------------
        X                 Y               Z
 ---------------- ---------------- ----------------
     0.0000000000     0.0000000000     0.9828460564

      Symmetry information
      --------------------

 Group name             C2v       
 Group number             16
 Group order               4
 No. of unique centers     2

      Symmetry unique atoms

     1    2

                                 NWChem SCF Module
                                 -----------------


                      H2O+ : STO-3G UHF geometry optimization



  ao basis        = "ao basis"
  functions       =     7
  atoms           =     3
  alpha electrons =     5
  beta  electrons =     4
  charge          =   1.00
  wavefunction    = UHF 
  input vectors   = ./h2o_freq.movecs
  output vectors  = ./h2o_freq.movecs
  use symmetry    = T
  symmetry adapt  = T


 Forming initial guess at       0.8s


 Starting SCF solution at       0.8s



       Final UHF  results 
       ------------------ 

         Total SCF energy =    -74.669738041047
      One electron energy =   -115.501694924476
      Two electron energy =     32.313411951413
 Nuclear repulsion energy =      8.518544932016

                       Sz =      0.5000
                 Sz(Sz+1) =      0.7500
                      S^2 =      0.7576

        Time for solution =      0.1s


                              NWChem Gradients Module
                              -----------------------



                         UHF ENERGY GRADIENTS

    atom               coordinates                        gradient
                 x          y          z           x          y          z
   1 O       0.000000   0.000000  -0.126841    0.000000   0.000000   0.000273
   2 H       1.592476   0.000000   0.998787   -0.001197   0.000000  -0.000136
   3 H      -1.592476   0.000000   0.998787    0.001197   0.000000  -0.000136


  Step       Energy      Delta E   Gmax     Grms     Xrms     Xmax   Walltime
  ---- ---------------- -------- -------- -------- -------- -------- --------
@    2     -74.66973804 -2.9D-03  0.00106  0.00093  0.04579  0.09559      0.9
                                                                    



                                Z-matrix (autoz)
                                -------- 

 Units are Angstrom for bonds and degrees for angles

      Type          Name      I     J     K     L     M      Value     Gradient
      ----------- --------  ----- ----- ----- ----- ----- ---------- ----------
    1 Stretch                  1     2                       1.03197   -0.00106
    2 Stretch                  1     3                       1.03197   -0.00106
    3 Bend                     2     1     3               109.49149   -0.00060

                                 NWChem SCF Module
                                 -----------------


                      H2O+ : STO-3G UHF geometry optimization



  ao basis        = "ao basis"
  functions       =     7
  atoms           =     3
  alpha electrons =     5
  beta  electrons =     4
  charge          =   1.00
  wavefunction    = UHF 
  input vectors   = ./h2o_freq.movecs
  output vectors  = ./h2o_freq.movecs
  use symmetry    = T
  symmetry adapt  = T


 Forming initial guess at       0.9s


 Starting SCF solution at       0.9s



       Final UHF  results 
       ------------------ 

         Total SCF energy =    -74.669743063581
      One electron energy =   -115.493779842748
      Two electron energy =     32.312495073398
 Nuclear repulsion energy =      8.511541705769

                       Sz =      0.5000
                 Sz(Sz+1) =      0.7500
                      S^2 =      0.7576

        Time for solution =      0.1s


 Line search: 
     step= 1.00 grad=-8.5D-06 hess= 3.5D-06 energy=    -74.669743 mode=downhill
 new step= 1.21                   predicted energy=    -74.669743

          --------
          Step   3
          --------


                         Geometry "geometry" -> "geometry"
                         ---------------------------------

 Output coordinates in angstroms (scale by  1.889725989 to convert to a.u.)

  No.       Tag          Charge          X              Y              Z
 ---- ---------------- ---------- -------------- -------------- --------------
    1 O                    8.0000     0.00000000     0.00000000    -0.06585271
    2 H                    1.0000     0.84520925     0.00000000     0.52790110
    3 H                    1.0000    -0.84520925     0.00000000     0.52790110

      Atomic Mass 
      ----------- 

      O                 15.994910
      H                  1.007825


 Effective nuclear repulsion energy (a.u.)       8.5100417450

            Nuclear Dipole moment (a.u.) 
            ----------------------------
        X                 Y               Z
 ---------------- ---------------- ----------------
     0.0000000000     0.0000000000     0.9996281953

      Symmetry information
      --------------------

 Group name             C2v       
 Group number             16
 Group order               4
 No. of unique centers     2

      Symmetry unique atoms

     1    2

                                 NWChem SCF Module
                                 -----------------


                      H2O+ : STO-3G UHF geometry optimization



  ao basis        = "ao basis"
  functions       =     7
  atoms           =     3
  alpha electrons =     5
  beta  electrons =     4
  charge          =   1.00
  wavefunction    = UHF 
  input vectors   = ./h2o_freq.movecs
  output vectors  = ./h2o_freq.movecs
  use symmetry    = T
  symmetry adapt  = T


 Forming initial guess at       1.0s


 Starting SCF solution at       1.0s



       Final UHF  results 
       ------------------ 

         Total SCF energy =    -74.669743223795
      One electron energy =   -115.492056747516
      Two electron energy =     32.312271778729
 Nuclear repulsion energy =      8.510041744992

                       Sz =      0.5000
                 Sz(Sz+1) =      0.7500
                      S^2 =      0.7576

        Time for solution =      0.1s


                              NWChem Gradients Module
                              -----------------------



                         UHF ENERGY GRADIENTS

    atom               coordinates                        gradient
                 x          y          z           x          y          z
   1 O       0.000000   0.000000  -0.124444    0.000000   0.000000  -0.000035
   2 H       1.597214   0.000000   0.997588    0.000014   0.000000   0.000017
   3 H      -1.597214   0.000000   0.997588   -0.000014   0.000000   0.000017


  Step       Energy      Delta E   Gmax     Grms     Xrms     Xmax   Walltime
  ---- ---------------- -------- -------- -------- -------- -------- --------
@    3     -74.66974322 -5.2D-06  0.00002  0.00002  0.00244  0.00474      1.1
                                     ok       ok                    



                                Z-matrix (autoz)
                                -------- 

 Units are Angstrom for bonds and degrees for angles

      Type          Name      I     J     K     L     M      Value     Gradient
      ----------- --------  ----- ----- ----- ----- ----- ---------- ----------
    1 Stretch                  1     2                       1.03292    0.00002
    2 Stretch                  1     3                       1.03292    0.00002
    3 Bend                     2     1     3               109.82443   -0.00001

                                 NWChem SCF Module
                                 -----------------


                      H2O+ : STO-3G UHF geometry optimization



  ao basis        = "ao basis"
  functions       =     7
  atoms           =     3
  alpha electrons =     5
  beta  electrons =     4
  charge          =   1.00
  wavefunction    = UHF 
  input vectors   = ./h2o_freq.movecs
  output vectors  = ./h2o_freq.movecs
  use symmetry    = T
  symmetry adapt  = T


 Forming initial guess at       1.1s


 Starting SCF solution at       1.1s



       Final UHF  results 
       ------------------ 

         Total SCF energy =    -74.669743224896
      One electron energy =   -115.492295135686
      Two electron energy =     32.312331077774
 Nuclear repulsion energy =      8.510220833016

                       Sz =      0.5000
                 Sz(Sz+1) =      0.7500
                      S^2 =      0.7576

        Time for solution =      0.0s


 Line search: 
     step= 1.00 grad=-2.8D-09 hess= 1.7D-09 energy=    -74.669743 mode=accept  
 new step= 1.00                   predicted energy=    -74.669743

          --------
          Step   4
          --------


                         Geometry "geometry" -> "geometry"
                         ---------------------------------

 Output coordinates in angstroms (scale by  1.889725989 to convert to a.u.)

  No.       Tag          Charge          X              Y              Z
 ---- ---------------- ---------- -------------- -------------- --------------
    1 O                    8.0000     0.00000000     0.00000000    -0.06582212
    2 H                    1.0000     0.84521365     0.00000000     0.52788581
    3 H                    1.0000    -0.84521365     0.00000000     0.52788581

      Atomic Mass 
      ----------- 

      O                 15.994910
      H                  1.007825


 Effective nuclear repulsion energy (a.u.)       8.5102208330

            Nuclear Dipole moment (a.u.) 
            ----------------------------
        X                 Y               Z
 ---------------- ---------------- ----------------
     0.0000000000     0.0000000000     1.0000328291

      Symmetry information
      --------------------

 Group name             C2v       
 Group number             16
 Group order               4
 No. of unique centers     2

      Symmetry unique atoms

     1    2

                                 NWChem SCF Module
                                 -----------------


                      H2O+ : STO-3G UHF geometry optimization



  ao basis        = "ao basis"
  functions       =     7
  atoms           =     3
  alpha electrons =     5
  beta  electrons =     4
  charge          =   1.00
  wavefunction    = UHF 
  input vectors   = ./h2o_freq.movecs
  output vectors  = ./h2o_freq.movecs
  use symmetry    = T
  symmetry adapt  = T


  The SCF is already converged 

         Total SCF energy =    -74.669743224896

                              NWChem Gradients Module
                              -----------------------



                         UHF ENERGY GRADIENTS

    atom               coordinates                        gradient
                 x          y          z           x          y          z
   1 O       0.000000   0.000000  -0.124386    0.000000   0.000000   0.000008
   2 H       1.597222   0.000000   0.997560   -0.000000   0.000000  -0.000004
   3 H      -1.597222   0.000000   0.997560    0.000000   0.000000  -0.000004


  Step       Energy      Delta E   Gmax     Grms     Xrms     Xmax   Walltime
  ---- ---------------- -------- -------- -------- -------- -------- --------
@    4     -74.66974322 -1.1D-09  0.00000  0.00000  0.00002  0.00006      1.2
                                     ok       ok       ok       ok  



                                Z-matrix (autoz)
                                -------- 

 Units are Angstrom for bonds and degrees for angles

      Type          Name      I     J     K     L     M      Value     Gradient
      ----------- --------  ----- ----- ----- ----- ----- ---------- ----------
    1 Stretch                  1     2                       1.03290   -0.00000
    2 Stretch                  1     3                       1.03290   -0.00000
    3 Bend                     2     1     3               109.82888    0.00000


      ----------------------
      Optimization converged
      ----------------------


  Step       Energy      Delta E   Gmax     Grms     Xrms     Xmax   Walltime
  ---- ---------------- -------- -------- -------- -------- -------- --------
@    4     -74.66974322 -1.1D-09  0.00000  0.00000  0.00002  0.00006      1.2
                                     ok       ok       ok       ok  



                                Z-matrix (autoz)
                                -------- 

 Units are Angstrom for bonds and degrees for angles

      Type          Name      I     J     K     L     M      Value     Gradient
      ----------- --------  ----- ----- ----- ----- ----- ---------- ----------
    1 Stretch                  1     2                       1.03290   -0.00000
    2 Stretch                  1     3                       1.03290   -0.00000
    3 Bend                     2     1     3               109.82888    0.00000



                         Geometry "geometry" -> "geometry"
                         ---------------------------------

 Output coordinates in angstroms (scale by  1.889725989 to convert to a.u.)

  No.       Tag          Charge          X              Y              Z
 ---- ---------------- ---------- -------------- -------------- --------------
    1 O                    8.0000     0.00000000     0.00000000    -0.06582212
    2 H                    1.0000     0.84521365     0.00000000     0.52788581
    3 H                    1.0000    -0.84521365     0.00000000     0.52788581

      Atomic Mass 
      ----------- 

      O                 15.994910
      H                  1.007825


 Effective nuclear repulsion energy (a.u.)       8.5102208330

            Nuclear Dipole moment (a.u.) 
            ----------------------------
        X                 Y               Z
 ---------------- ---------------- ----------------
     0.0000000000     0.0000000000     1.0000328291

      Symmetry information
      --------------------

 Group name             C2v       
 Group number             16
 Group order               4
 No. of unique centers     2

      Symmetry unique atoms

     1    2


                Final and change from initial internal coordinates
                --------------------------------------------------



                                Z-matrix (autoz)
                                -------- 

 Units are Angstrom for bonds and degrees for angles

      Type          Name      I     J     K     L     M      Value       Change
      ----------- --------  ----- ----- ----- ----- ----- ---------- ----------
    1 Stretch                  1     2                       1.03290    0.03290
    2 Stretch                  1     3                       1.03290    0.03290
    3 Bend                     2     1     3               109.82888   19.82888

 ==============================================================================
                                internuclear distances
 ------------------------------------------------------------------------------
       center one      |      center two      | atomic units |  angstroms
 ------------------------------------------------------------------------------
    2 H                |   1 O                |     1.95189  |     1.03290
    3 H                |   1 O                |     1.95189  |     1.03290
 ------------------------------------------------------------------------------
                         number of included internuclear distances:          2
 ==============================================================================



 ==============================================================================
                                 internuclear angles
 ------------------------------------------------------------------------------
        center 1       |       center 2       |       center 3       |  degrees
 ------------------------------------------------------------------------------
    2 H                |   1 O                |   3 H                |   109.83
 ------------------------------------------------------------------------------
                            number of included internuclear angles:          1
 ==============================================================================




 Task  times  cpu:        1.2s     wall:        1.2s
 Summary of allocated global arrays
-----------------------------------
  No active global arrays



                         GA Statistics for process    0
                         ------------------------------

       create   destroy   get      put      acc     scatter   gather  read&inc
calls: 3038     3038     1.67e+04 5183     1.07e+04  408        0     2651     
number of processes/call 1.00e+00 1.00e+00 1.00e+00 0.00e+00 0.00e+00
bytes total:             1.54e+06 7.25e+05 6.41e+05 9.60e+01 0.00e+00 2.12e+04
bytes remote:            0.00e+00 0.00e+00 0.00e+00 0.00e+00 0.00e+00 0.00e+00
Max memory consumed for GA by this process: 9720 bytes
MA_summarize_allocated_blocks: starting scan ...
MA_summarize_allocated_blocks: scan completed: 0 heap blocks, 0 stack blocks
MA usage statistics:

	allocation statistics:
					      heap	     stack
					      ----	     -----
	current number of blocks	         0	         0
	maximum number of blocks	        20	        33
	current total bytes		         0	         0
	maximum total bytes		   1054344	  22509416
	maximum total K-bytes		      1055	     22510
	maximum total M-bytes		         2	        23


                                NWChem Input Module
                                -------------------





                                     CITATION
                                     --------
                Please cite the following reference when publishing
                           results obtained with NWChem:

                 M. Valiev, E.J. Bylaska, N. Govind, K. Kowalski,
              T.P. Straatsma, H.J.J. van Dam, D. Wang, J. Nieplocha,
                        E. Apra, T.L. Windus, W.A. de Jong
                 "NWChem: a comprehensive and scalable open-source
                  solution for large scale molecular simulations"
                      Comput. Phys. Commun. 181, 1477 (2010)
                           doi:10.1016/j.cpc.2010.04.018

                                      AUTHORS
                                      -------
          E. Apra, E. J. Bylaska, W. A. de Jong, N. Govind, K. Kowalski,
       T. P. Straatsma, M. Valiev, H. J. J. van Dam, D. Wang, T. L. Windus,
        J. Hammond, J. Autschbach, K. Bhaskaran-Nair, J. Brabec, K. Lopata,
    S. A. Fischer, S. Krishnamoorthy, M. Jacquelin, W. Ma, M. Klemm, O. Villa,
      Y. Chen, V. Anisimov, F. Aquino, S. Hirata, M. T. Hackler, V. Konjkov,
            D. Mejia-Rodriguez, T. Risthaus, M. Malagoli, A. Marenich,
   A. Otero-de-la-Roza, J. Mullin, P. Nichols, R. Peverati, J. Pittner, Y. Zhao,
        P.-D. Fan, A. Fonari, M. J. Williamson, R. J. Harrison, J. R. Rehr,
      M. Dupuis, D. Silverstein, D. M. A. Smith, J. Nieplocha, V. Tipparaju,
    M. Krishnan, B. E. Van Kuiken, A. Vazquez-Mayagoitia, L. Jensen, M. Swart,
      Q. Wu, T. Van Voorhis, A. A. Auer, M. Nooijen, L. D. Crosby, E. Brown,
      G. Cisneros, G. I. Fann, H. Fruchtl, J. Garza, K. Hirao, R. A. Kendall,
      J. A. Nichols, K. Tsemekhman, K. Wolinski, J. Anchell, D. E. Bernholdt,
      P. Borowski, T. Clark, D. Clerc, H. Dachsel, M. J. O. Deegan, K. Dyall,
    D. Elwood, E. Glendening, M. Gutowski, A. C. Hess, J. Jaffe, B. G. Johnson,
     J. Ju, R. Kobayashi, R. Kutteh, Z. Lin, R. Littlefield, X. Long, B. Meng,
      T. Nakajima, S. Niu, L. Pollack, M. Rosing, K. Glaesemann, G. Sandrone,
      M. Stave, H. Taylor, G. Thomas, J. H. van Lenthe, A. T. Wong, Z. Zhang.

 Total times  cpu:        1.3s     wall:        1.3s
